26
	Energy:      29.8773461
C         -0.02366       -0.00362       -0.07514
C         -0.08873        0.00044        1.32457
C          1.22895        0.01200       -0.71318
C          2.39985        0.03171        0.05301
C          2.34452        0.03641        1.45845
C          1.08123        0.01997        2.08785
O          1.32473        0.00805       -2.06007
H          0.54609       -0.00552       -2.63416
O         -1.15682       -0.02276       -0.80823
H         -2.03191       -0.03406       -0.39463
H         -1.04961       -0.01162        1.82375
H          0.98657        0.02285        3.16371
H          3.36037        0.04263       -0.44881
C          3.65485        0.05594        2.23285
O          4.36385        1.21557        1.87372
H          5.32855        0.97991        1.86127
C          3.51220        0.00709        3.76606
N          4.83482       -0.01107        4.40207
C          4.70860       -0.00947        5.85986
H          4.21560       -0.85498        1.91231
H          2.95171        0.90767        4.10385
H          2.94945       -0.91000        4.05451
H          5.33785       -0.88494        4.11926
H          5.72048       -0.02532        6.31668
H          4.19059        0.91206        6.20257
H          4.14893       -0.90494        6.20966
